# vtk DataFile Version 2.0
scalar
ASCII
DATASET UNSTRUCTURED_GRID
POINTS 13 float
0 0 0
0.5 0 0
1 0 0
1 0.5 0
1 1 0
0.5 1 0
0 1 0
0 0.5 0
0.25 0.25 0
0.75 0.25 0
0.75 0.75 0
0.25 0.75 0
0.5 0.5 0

CELLS 16 64
3 0 8 7
3 0 1 8
3 1 12 8
3 12 7 8
3 1 12 9
3 1 2 9
3 2 3 9
3 3 12 9
3 12 10 5
3 12 3 10
3 3 4 10
3 4 5 10
3 6 7 11
3 7 12 11
3 12 5 11
3 5 6 11

CELL_TYPES 16
5
5
5
5
5
5
5
5
5
5
5
5
5
5
5
5

POINT_DATA 13
SCALARS point_scalars float
LOOKUP_TABLE default
0.5
0.41666666666666663
0.0
0.41666666666666663
0.5
0.5833333333333334
1.0
0.5833333333333334
0.5
0.3333333333333333
0.5
0.6666666666666667
0.5

CELL_DATA 16
SCALARS cell_scalars float
LOOKUP_TABLE default
1
1
1
1
1
1
1
1
1
1
1
1
1
1
1
1
