# vtk DataFile Version 2.0
scalar
ASCII
DATASET UNSTRUCTURED_GRID
POINTS 4 float
0 0 0
1 0 0
1 1 0
0 1 0
CELLS 1 5
4 0 1 2 3
CELL_TYPES 1
9
POINT_DATA 4
SCALARS point_scalars float
LOOKUP_TABLE default
0.5
0.0
0.5
1.0
CELL_DATA 1
SCALARS cell_scalars float
LOOKUP_TABLE default
5